 Gaussian 09, Revision D.01,
 Gaussian 09:  EM64L-G09RevD.01 24-Apr-2013

 -----------------------
 #p opt 6-31G(d) pop=npa
 -----------------------

 --------
 Ammonium
 --------
 Symbolic Z-matrix:
 Charge =  1 Multiplicity = 1

 SCF Done:  E(RHF) =  -212.682638849     A.U. after    9 cycles
 SCF Done:  E(RHF) =  -212.685057733     A.U. after    8 cycles
 SCF Done:  E(RHF) =  -212.685136836     A.U. after    8 cycles
 SCF Done:  E(RHF) =  -212.685140805     A.U. after    7 cycles
 Optimization completed.
    -- Stationary point found.

                         Standard orientation:
 ---------------------------------------------------------------------
 Center     Atomic      Atomic             Coordinates (Angstroms)
 Number     Number       Type             X           Y           Z
 ---------------------------------------------------------------------
      1          7           0        0.000000    0.000000    0.000000
      2          6           0        0.940392    0.176695   -1.149839
      3          1           0        1.663565   -0.624523   -1.139438
      4          1           0        0.378428    0.152604   -2.071063
      5          1           0        1.443016    1.126738   -1.050697
      6          6           0       -0.702547   -1.314445   -0.127869
      7          1           0       -1.378644   -1.434671    0.704882
      8          1           0       -1.255073   -1.329516   -1.054977
      9          1           0        0.030143   -2.107028   -0.123781
     10          6           0        0.769163    0.031585    1.282606
     11          1           0        1.273123    0.982298    1.367497
     12          1           0        0.084263   -0.096211    2.106998
     13          1           0        1.493060   -0.769038    1.278731
     14          6           0       -1.007008    1.106164   -0.004898
     15          1           0       -0.492854    2.050642    0.088098
     16          1           0       -1.557280    1.077110   -0.933011
     17          1           0       -1.681745    0.971594    0.826763
 ---------------------------------------------------------------------

 The electronic state is 1-A.
 Alpha  occ. eigenvalues --  -15.87942 -11.45466 -11.45466 -11.45466 -11.45463
 Alpha  occ. eigenvalues --   -1.52030  -1.18162  -1.18162  -1.18162  -1.03022
 Alpha  occ. eigenvalues --   -0.87866  -0.87866  -0.87866  -0.78810  -0.78810
 Alpha  occ. eigenvalues --   -0.73812  -0.73812  -0.73812  -0.72570  -0.72570
 Alpha  occ. eigenvalues --   -0.72570
 Alpha virt. eigenvalues --    0.01418   0.08930   0.08930   0.08930   0.10389
 Alpha virt. eigenvalues --    0.12981   0.12981   0.12981   0.14731   0.14731
 Alpha virt. eigenvalues --    0.17794   0.17794   0.17794   0.20414   0.20414

 Mulliken charges:
               1
     1  N   -0.559229
     2  C   -0.342307
     3  H    0.244038
     4  H    0.244038
     5  H    0.244038
     6  C   -0.342307
     7  H    0.244038
     8  H    0.244038
     9  H    0.244038
    10  C   -0.342307
    11  H    0.244038
    12  H    0.244038
    13  H    0.244038
    14  C   -0.342307
    15  H    0.244038
    16  H    0.244038
    17  H    0.244038
 Sum of Mulliken charges =   1.00000

 Dipole moment (field-independent basis, Debye):
    X=              0.0000    Y=              0.0000    Z=              0.0000  Tot=              0.0000
 Quadrupole moment (field-independent basis, Debye-Ang):
   XX=            -26.4123   YY=            -26.4123   ZZ=            -26.4123
   XY=              0.0000   XZ=              0.0000   YZ=              0.0000

 Summary of Natural Population Analysis:

                                       Natural Population
                Natural  -----------------------------------------------
    Atom  No    Charge         Core      Valence    Rydberg      Total
 -----------------------------------------------------------------------
      N    1   -0.36213      1.99948     5.35426    0.00839     7.36213
      C    2   -0.40608      1.99949     4.38514    0.02145     6.40608
      H    3    0.24887      0.00000     0.75063    0.00050     0.75113
      H    4    0.24887      0.00000     0.75063    0.00050     0.75113
      H    5    0.24887      0.00000     0.75063    0.00050     0.75113
      C    6   -0.40608      1.99949     4.38514    0.02145     6.40608
      H    7    0.24887      0.00000     0.75063    0.00050     0.75113
      H    8    0.24887      0.00000     0.75063    0.00050     0.75113
      H    9    0.24887      0.00000     0.75063    0.00050     0.75113
      C   10   -0.40608      1.99949     4.38514    0.02145     6.40608
      H   11    0.24887      0.00000     0.75063    0.00050     0.75113
      H   12    0.24887      0.00000     0.75063    0.00050     0.75113
      H   13    0.24887      0.00000     0.75063    0.00050     0.75113
      C   14   -0.40608      1.99949     4.38514    0.02145     6.40608
      H   15    0.24887      0.00000     0.75063    0.00050     0.75113
      H   16    0.24887      0.00000     0.75063    0.00050     0.75113
      H   17    0.24887      0.00000     0.75063    0.00050     0.75113
 =======================================================================
   * Total *    1.00000      9.99743    31.90241    0.10015    42.00000

 1\1\GINC-BELLINI\FOpt\RHF\6-31G(d)\C4H12N1(1+)\VINCENT\11-Mar-2016\0\\
 #p opt 6-31G(d) pop=npa\\Ammonium\\1,1\N,-0.6622516681,-0.0993377448,0
 .0000000214\C,-0.1635985045,0.6059692378,-1.2213006028\H,0.9157395326,
 0.6019923422,-1.2140336266\H,-0.5271101516,0.0916517221,-2.0978700159\
 H,-0.5274204287,1.6221497573,-1.2141244824\C,-0.1636521547,-1.50968756
 91,-0.0001680994\H,-0.5271764513,-2.0116469014,0.8835310907\H,-0.52750
 00229,-2.0115486885,-0.8837919176\H,0.9156860335,-1.5014470474,-0.0003
 656087\C,-0.163613909,0.6056726022,1.2214781922\H,-0.5270793226,1.6219

 Normal termination of Gaussian 09 at Fri Mar 11 14:19:28 2016.
