 Gaussian 09, Revision D.01,
 Gaussian 09:  EM64L-G09RevD.01 24-Apr-2013

 ------------------
 #p 6-31G(d) pop=MK
 ------------------

 --------
 Ammonium
 --------
 Symbolic Z-matrix:
 Charge =  1 Multiplicity = 1

                         Standard orientation:
 ---------------------------------------------------------------------
 Center     Atomic      Atomic             Coordinates (Angstroms)
 Number     Number       Type             X           Y           Z
 ---------------------------------------------------------------------
      1          7           0        0.000000    0.000000    0.000000
      2          6           0       -0.940153   -0.155914   -1.153036
      3          1           0       -1.647889    0.658975   -1.142809
      4          1           0       -0.375074   -0.140387   -2.072537
      5          1           0       -1.461160   -1.096394   -1.057699
      6          6           0        0.727952    1.301056   -0.122584
      7          1           0        1.403729    1.406328    0.712450
      8          1           0        1.283440    1.307760   -1.048018
      9          1           0        0.010555    2.107509   -0.118719
     10          6           0       -0.773465   -0.019917    1.280252
     11          1           0       -1.295778   -0.961008    1.361331
     12          1           0       -0.088717    0.092775    2.106969
     13          1           0       -1.481893    0.794424    1.276198
     14          6           0        0.985665   -1.125225   -0.004632
     15          1           0        0.453255   -2.059906    0.084538
     16          1           0        1.539170   -1.104494   -0.931045
     17          1           0        1.660360   -1.005582    0.829341
 ---------------------------------------------------------------------

 SCF Done:  E(RHF) =  -212.685140805     A.U. after    9 cycles

 The electronic state is 1-A.
 Alpha  occ. eigenvalues --  -15.87942 -11.45466 -11.45466 -11.45466 -11.45463
 Alpha  occ. eigenvalues --   -1.52030  -1.18162  -1.18162  -1.18162  -1.03022
 Alpha  occ. eigenvalues --   -0.87866  -0.87866  -0.87866  -0.78810  -0.78810
 Alpha  occ. eigenvalues --   -0.73812  -0.73812  -0.73812  -0.72570  -0.72570
 Alpha  occ. eigenvalues --   -0.72570
 Alpha virt. eigenvalues --    0.01418   0.08930   0.08930   0.08930   0.10389
 Alpha virt. eigenvalues --    0.12981   0.12981   0.12981   0.14731   0.14731
 Alpha virt. eigenvalues --    0.17794   0.17794   0.17794   0.20414   0.20414

 Mulliken charges:
               1
     1  N   -0.559229
     2  C   -0.342307
     3  H    0.244038
     4  H    0.244038
     5  H    0.244038
     6  C   -0.342307
     7  H    0.244038
     8  H    0.244038
     9  H    0.244038
    10  C   -0.342307
    11  H    0.244038
    12  H    0.244038
    13  H    0.244038
    14  C   -0.342307
    15  H    0.244038
    16  H    0.244038
    17  H    0.244038
 Sum of Mulliken charges =   1.00000

 Dipole moment (field-independent basis, Debye):
    X=              0.0000    Y=              0.0000    Z=              0.0000  Tot=              0.0000
 Quadrupole moment (field-independent basis, Debye-Ang):
   XX=            -26.4123   YY=            -26.4123   ZZ=            -26.4123
   XY=              0.0000   XZ=              0.0000   YZ=              0.0000

 ESP charges:
               1
     1  N    0.299219
     2  C   -0.452380
     3  H    0.208987
     4  H    0.208708
     5  H    0.208879
     6  C   -0.467359
     7  H    0.213081
     8  H    0.213035
     9  H    0.212076
    10  C   -0.452919
    11  H    0.208399
    12  H    0.209510
    13  H    0.209216
    14  C   -0.420185
    15  H    0.201004
    16  H    0.200553
    17  H    0.200177
 Sum of ESP charges =   1.00000

 Normal termination of Gaussian 09 at Fri Mar 11 14:23:11 2016.
