 Gaussian 09, Revision D.01,
 Gaussian 09:  EM64L-G09RevD.01 24-Apr-2013

 ----------------------------------
 #p opt freq 6-31G(d) pop=hirshfeld
 ----------------------------------

 --------
 Ammonium
 --------
 Symbolic Z-matrix:
 Charge =  1 Multiplicity = 1

 SCF Done:  E(RHF) =  -212.682638849     A.U. after    9 cycles
 SCF Done:  E(RHF) =  -212.685057733     A.U. after    8 cycles
 SCF Done:  E(RHF) =  -212.685136836     A.U. after    8 cycles
 SCF Done:  E(RHF) =  -212.685140805     A.U. after    7 cycles
 Optimization completed.
    -- Stationary point found.

 1\1\GINC-BELLINI\FOpt\RHF\6-31G(d)\C4H12N1(1+)\VINCENT\11-Mar-2016\0\\
 #p opt freq 6-31G(d) pop=hirshfeld\\Ammonium\\1,1\N,-0.6622516681,-0.0
 993377448,0.0000000214\C,-0.1635985045,0.6059692378,-1.2213006028\H,0.
 9157395326,0.6019923422,-1.2140336266\H,-0.5271101516,0.0916517221,-2.
 0978700159\H,-0.5274204287,1.6221497573,-1.2141244824\C,-0.1636521547,
 -1.5096875691,-0.0001680994\H,-0.5271764513,-2.0116469014,0.8835310907
 \H,-0.5275000229,-2.0115486885,-0.8837919176\H,0.9156860335,-1.5014470
 474,-0.0003656087\C,-0.163613909,0.6056726022,1.2214781922\H,-0.527079

 Normal termination of Gaussian 09 at Fri Mar 11 14:13:04 2016.

 -----------------------------------------------------------------
 #P Geom=AllCheck Guess=TCheck SCRF=Check GenChk RHF/6-31G(d) Freq
 -----------------------------------------------------------------

 Structure from the checkpoint file:  "Ammonium.chk"
 --------
 Ammonium
 --------
 Charge =  1 Multiplicity = 1

                         Standard orientation:
 ---------------------------------------------------------------------
 Center     Atomic      Atomic             Coordinates (Angstroms)
 Number     Number       Type             X           Y           Z
 ---------------------------------------------------------------------
      1          7           0        0.000000    0.000000    0.000000
      2          6           0        0.940388    0.176363   -1.149893
      3          1           0        1.663320   -0.625074   -1.139494
      4          1           0        0.378372    0.152403   -2.071088
      5          1           0        1.443304    1.126257   -1.050816
      6          6           0       -0.702950   -1.314238   -0.127779
      7          1           0       -1.379043   -1.434224    0.705011
      8          1           0       -1.255527   -1.329181   -1.054859
      9          1           0        0.029500   -2.107042   -0.123694
     10          6           0        0.769236    0.031407    1.282567
     11          1           0        1.273487    0.981971    1.367392
     12          1           0        0.084338   -0.096147    2.106998
     13          1           0        1.492891   -0.769435    1.278689
     14          6           0       -1.006674    1.106468   -0.004894
     15          1           0       -0.492230    2.050794    0.088036
     16          1           0       -1.557001    1.077541   -0.932980
     17          1           0       -1.681411    0.972137    0.826805
 ---------------------------------------------------------------------

 SCF Done:  E(RHF) =  -212.685140805     A.U. after    1 cycles

 The electronic state is 1-A.
 Alpha  occ. eigenvalues --  -15.87942 -11.45466 -11.45466 -11.45466 -11.45463
 Alpha  occ. eigenvalues --   -1.52030  -1.18162  -1.18162  -1.18162  -1.03022
 Alpha  occ. eigenvalues --   -0.87866  -0.87866  -0.87866  -0.78810  -0.78810
 Alpha  occ. eigenvalues --   -0.73812  -0.73812  -0.73812  -0.72570  -0.72570
 Alpha  occ. eigenvalues --   -0.72570
 Alpha virt. eigenvalues --    0.01418   0.08930   0.08930   0.08930   0.10389
 Alpha virt. eigenvalues --    0.12981   0.12981   0.12981   0.14731   0.14731
 Alpha virt. eigenvalues --    0.17794   0.17794   0.17794   0.20414   0.20414

 Mulliken charges:
               1
     1  N   -0.559229
     2  C   -0.342307
     3  H    0.244038
     4  H    0.244038
     5  H    0.244038
     6  C   -0.342307
     7  H    0.244038
     8  H    0.244038
     9  H    0.244038
    10  C   -0.342307
    11  H    0.244038
    12  H    0.244038
    13  H    0.244038
    14  C   -0.342307
    15  H    0.244038
    16  H    0.244038
    17  H    0.244038
 Sum of Mulliken charges =   1.00000

 Dipole moment (field-independent basis, Debye):
    X=              0.0000    Y=              0.0000    Z=              0.0000  Tot=              0.0000
 Quadrupole moment (field-independent basis, Debye-Ang):
   XX=            -26.4123   YY=            -26.4123   ZZ=            -26.4123
   XY=              0.0000   XZ=              0.0000   YZ=              0.0000

  Exact polarizability:  44.358   0.000  44.358   0.000   0.000  44.358
 Approx polarizability:  38.497   0.000  38.497   0.000   0.000  38.497

                      1                      2                      3
                      A                      A                      A
 Frequencies --    200.5894               315.5770               315.5771
 Red. masses --      1.0078                 1.0330                 1.0330
 Frc consts  --      0.0239                 0.0606                 0.0606
 IR Inten    --      0.0000                 0.0000                 0.0000
 Raman Activ --      0.0000                 0.0000                 0.0000

                      4                      5                      6
                      A                      A                      A
 Frequencies --    315.5771               387.9508               387.9508
 Red. masses --      1.0330                 2.3561                 2.3561
 Frc consts  --      0.0606                 0.2089                 0.2089
 IR Inten    --      0.0000                 0.0000                 0.0000
 Raman Activ --      0.0000                 0.4010                 0.4010

                      7                      8                      9
                      A                      A                      A
 Frequencies --    488.6323               488.6323               488.6324
 Red. masses --      2.3997                 2.3997                 2.3997
 Frc consts  --      0.3376                 0.3376                 0.3376
 IR Inten    --      0.4330                 0.4330                 0.4330
 Raman Activ --      0.1046                 0.1046                 0.1046

                     10                     11                     12
                      A                      A                      A
 Frequencies --    791.6014              1029.2088              1029.2088
 Red. masses --      3.9464                 2.5156                 2.5156
 Frc consts  --      1.4570                 1.5700                 1.5700
 IR Inten    --      0.0000                35.9774                35.9774
 Raman Activ --     16.8386                10.1033                10.1033

                     13                     14                     15
                      A                      A                      A
 Frequencies --   1029.2088              1178.9495              1178.9495
 Red. masses --      2.5156                 1.1910                 1.1910
 Frc consts  --      1.5700                 0.9753                 0.9753
 IR Inten    --     35.9774                 0.0000                 0.0000
 Raman Activ --     10.1033                 0.0000                 0.0000

                     16                     17                     18
                      A                      A                      A
 Frequencies --   1178.9495              1293.8472              1293.8472
 Red. masses --      1.1910                 1.2963                 1.2963
 Frc consts  --      0.9753                 1.2785                 1.2785
 IR Inten    --      0.0000                 0.0000                 0.0000
 Raman Activ --      0.0000                 5.8434                 5.8434

                     19                     20                     21
                      A                      A                      A
 Frequencies --   1440.7528              1440.7528              1440.7528
 Red. masses --      2.1400                 2.1400                 2.1400
 Frc consts  --      2.6172                 2.6172                 2.6172
 IR Inten    --     11.8591                11.8591                11.8591
 Raman Activ --      0.0039                 0.0039                 0.0039

                     22                     23                     24
                      A                      A                      A
 Frequencies --   1590.1371              1590.1371              1590.1371
 Red. masses --      1.1457                 1.1457                 1.1457
 Frc consts  --      1.7069                 1.7069                 1.7069
 IR Inten    --      2.5326                 2.5326                 2.5326
 Raman Activ --      3.3327                 3.3327                 3.3327

                     25                     26                     27
                      A                      A                      A
 Frequencies --   1618.7855              1618.7855              1618.7855
 Red. masses --      1.0455                 1.0455                 1.0455
 Frc consts  --      1.6142                 1.6142                 1.6142
 IR Inten    --      0.0000                 0.0000                 0.0000
 Raman Activ --      0.0000                 0.0000                 0.0000

                     28                     29                     30
                      A                      A                      A
 Frequencies --   1631.2685              1631.2685              1655.1189
 Red. masses --      1.0369                 1.0369                 1.1817
 Frc consts  --      1.6257                 1.6257                 1.9073
 IR Inten    --      0.0000                 0.0000                 0.0000
 Raman Activ --     42.8777                42.8777                 0.0228

                     31                     32                     33
                      A                      A                      A
 Frequencies --   1663.1188              1663.1188              1663.1188
 Red. masses --      1.0594                 1.0594                 1.0594
 Frc consts  --      1.7265                 1.7265                 1.7265
 IR Inten    --     59.1636                59.1636                59.1636
 Raman Activ --      0.0036                 0.0036                 0.0036

                     34                     35                     36
                      A                      A                      A
 Frequencies --   3261.2088              3261.2088              3261.2089
 Red. masses --      1.0303                 1.0303                 1.0303
 Frc consts  --      6.4562                 6.4562                 6.4562
 IR Inten    --      5.0106                 5.0106                 5.0106
 Raman Activ --      0.4105                 0.4105                 0.4105

                     37                     38                     39
                      A                      A                      A
 Frequencies --   3273.5359              3362.2942              3362.2942
 Red. masses --      1.0329                 1.1098                 1.1098
 Frc consts  --      6.5212                 7.3918                 7.3918
 IR Inten    --      0.0000                 0.0000                 0.0000
 Raman Activ --    307.0884                 0.0000                 0.0001

                     40                     41                     42
                      A                      A                      A
 Frequencies --   3362.2942              3363.5393              3363.5393
 Red. masses --      1.1098                 1.1114                 1.1114
 Frc consts  --      7.3918                 7.4084                 7.4084
 IR Inten    --      0.0000                 0.0000                 0.0000
 Raman Activ --      0.0001                 7.6601                 7.6601

                     43                     44                     45
                      A                      A                      A
 Frequencies --   3370.7537              3370.7537              3370.7537
 Red. masses --      1.1099                 1.1099                 1.1099
 Frc consts  --      7.4299                 7.4299                 7.4299
 IR Inten    --      4.5612                 4.5612                 4.5612
 Raman Activ --    106.5576               106.5575               106.5576

 - Thermochemistry -
 -------------------
 Temperature   298.150 Kelvin.  Pressure   1.00000 Atm.
 Atom     1 has atomic number  7 and mass  14.00307

 Molecular mass:    74.09697 amu.
 Principal axes and moments of inertia in atomic units:
                           1         2         3
     Eigenvalues --   384.00138 384.00138 384.00139
           X           -0.64429  -0.02204   0.76446
           Y            0.76271  -0.09198   0.64016
           Z            0.05621   0.99552   0.07607
 This molecule is a prolate symmetric top.
 Rotational symmetry number  1.
 Rotational temperatures (Kelvin)      0.22556     0.22556     0.22556
 Rotational constants (GHZ):           4.69983     4.69983     4.69983
 Zero-point vibrational energy     461951.8 (Joules/Mol)
                                  110.40913 (Kcal/Mol)
 Warning -- explicit consideration of   9 degrees of freedom as
           vibrations may cause significant error
 Vibrational temperatures:    288.60   454.04   454.04   454.04   558.17
          (Kelvin)            558.17   703.03   703.03   703.03  1138.94
                             1480.80  1480.80  1480.80  1696.24  1696.24
                             1696.24  1861.56  1861.56  2072.92  2072.92
                             2072.92  2287.85  2287.85  2287.85  2329.07
                             2329.07  2329.07  2347.03  2347.03  2381.34
                             2392.85  2392.85  2392.85  4692.15  4692.15
                             4692.15  4709.88  4837.59  4837.59  4837.59
                             4839.38  4839.38  4849.76  4849.76  4849.76

 Zero-point correction=                           0.175948 (Hartree/Particle)
 Thermal correction to Energy=                    0.182195
 Thermal correction to Enthalpy=                  0.183139
 Thermal correction to Gibbs Free Energy=         0.147337
 Sum of electronic and zero-point Energies=           -212.509193
 Sum of electronic and thermal Energies=              -212.502946
 Sum of electronic and thermal Enthalpies=            -212.502002
 Sum of electronic and thermal Free Energies=         -212.537804

                     E (Thermal)             CV                S
                      KCal/Mol        Cal/Mol-Kelvin    Cal/Mol-Kelvin
 Total                  114.329             23.063             75.352
 Electronic               0.000              0.000              0.000
 Translational            0.889              2.981             38.824
 Rotational               0.889              2.981             25.541
 Vibrational            112.552             17.101             10.987
 Vibration     1          0.638              1.839              2.128
 Vibration     2          0.703              1.644              1.333
 Vibration     3          0.703              1.644              1.333
 Vibration     4          0.703              1.644              1.333
 Vibration     5          0.756              1.496              1.008
 Vibration     6          0.756              1.496              1.008
 Vibration     7          0.845              1.275              0.687
 Vibration     8          0.845              1.275              0.687
 Vibration     9          0.845              1.275              0.687

 Optimization completed.
    -- Stationary point found.

 1\1\GINC-BELLINI\Freq\RHF\6-31G(d)\C4H12N1(1+)\VINCENT\11-Mar-2016\0\\
 #P Geom=AllCheck Guess=TCheck SCRF=Check GenChk RHF/6-31G(d) Freq\\Amm
 onium\\1,1\N,-0.6622516682,-0.0993377448,0.0000000214\C,-0.1635985045,
 0.6059692378,-1.2213006028\H,0.9157395326,0.6019923422,-1.2140336266\H
 ,-0.5271101516,0.0916517221,-2.0978700159\H,-0.5274204287,1.6221497573
 ,-1.2141244824\C,-0.1636521547,-1.5096875691,-0.0001680994\H,-0.527176
 4513,-2.0116469014,0.8835310907\H,-0.5275000229,-2.0115486885,-0.88379
 19176\H,0.9156860335,-1.5014470474,-0.0003656087\C,-0.163613909,0.6056

 Normal termination of Gaussian 09 at Fri Mar 11 14:14:41 2016.
